#LAMMPS Data File

25000 atoms
25000 bonds
5 atom types
1 bond types
0.0000 30.0000 xlo xhi
0.0000 30.0000 ylo yhi
0.0000 30.0000 zlo zhi

Atoms

1 1 1 16.9495 0.0788 27.5068
2 1 2 17.2590 0.4147 27.3326
3 1 3 17.3633 0.5954 27.2194
4 1 4 17.0826 0.3141 27.4456
5 1 4 16.9534 0.2113 27.3184
6 1 1 23.3718 0.7531 24.7401
7 1 2 23.4534 1.1355 24.4467
8 1 3 23.4852 1.2826 24.2631
9 1 4 23.3487 0.9595 24.5565
10 1 4 23.4412 0.7761 24.5216
11 1 1 8.7601 6.3433 18.2700
12 1 2 8.3571 6.6188 18.2454
13 1 3 8.1355 6.7022 18.2280
14 1 4 8.5171 6.4672 18.3191
15 1 4 8.5487 6.3115 18.1842
16 1 1 11.5663 19.2244 15.4141
17 1 2 11.2604 19.2029 15.7947
18 1 3 11.0752 19.1737 15.9403
19 1 4 11.3973 19.1412 15.6175
20 1 4 11.3369 19.2243 15.4362
21 1 1 27.3561 11.5557 2.6384
22 1 2 27.3195 11.0724 2.7016
23 1 3 27.2558 10.8437 2.6993
24 1 4 27.3499 11.2808 2.6034
25 1 4 27.1832 11.4042 2.6229
26 1 1 18.9012 20.3600 18.8955
27 1 2 18.9309 20.8153 19.0709
28 1 3 19.0011 21.0255 19.1558
29 1 4 18.9498 20.6305 18.9313
30 1 4 19.0592 20.4754 19.0172
31 1 1 21.7352 3.1705 29.7710
32 1 2 21.6193 3.5919 29.5521
33 1 3 21.6142 3.7902 29.4217
34 1 4 21.6691 3.3677 29.5878
35 1 4 21.8572 3.3394 29.6728
36 1 1 5.3320 26.9169 16.7682
37 1 2 5.7513 26.8739 16.5208
38 1 3 5.9433 26.9065 16.3849
39 1 4 5.5919 26.9424 16.6754
40 1 4 5.4227 27.0244 16.5857
41 1 1 18.4233 20.1815 16.3796
42 1 2 18.8556 20.3569 16.5255
43 1 3 19.0609 20.4737 16.5492
44 1 4 18.6301 20.3416 16.4715
45 1 4 18.5982 20.2869 16.2729
46 1 1 25.6163 20.0719 22.3524
47 1 2 25.3002 20.3867 22.1527
48 1 3 25.1109 20.4956 22.0596
49 1 4 25.4050 20.2446 22.3037
50 1 4 25.4205 20.0491 22.2331
51 1 1 12.0207 16.9647 1.3743
52 1 2 11.7972 17.3256 1.6166
53 1 3 11.6943 17.4655 1.7784
54 1 4 11.9581 17.1741 1.5448
55 1 4 11.8989 16.9758 1.5695
56 1 1 5.0539 2.6496 0.5264
57 1 2 4.9719 2.1879 0.3884
58 1 3 4.9645 1.9784 0.2770
59 1 4 5.0783 2.3815 0.4605
60 1 4 5.0608 2.5386 0.3247
61 1 1 11.1411 10.7936 5.4631
62 1 2 10.7576 10.6512 5.7305
63 1 3 10.5609 10.6380 5.8628
64 1 4 10.8867 10.7381 5.5580
65 1 4 11.0069 10.8969 5.6193
66 1 1 19.2482 10.9524 21.5074
67 1 2 19.0487 11.3338 21.7389
68 1 3 18.9151 11.4798 21.8700
69 1 4 19.1578 11.1329 21.6972
70 1 4 19.0391 10.9967 21.5934
71 1 1 5.0855 26.9985 0.2351
72 1 2 5.2563 27.3689 0.5043
73 1 3 5.3679 27.5074 0.6615
74 1 4 5.2446 27.1909 0.3554
75 1 4 5.1784 27.0149 0.4453
76 1 1 6.5263 29.9701 13.0510
77 1 2 6.2892 29.5969 13.2594
78 1 3 6.1600 29.4551 13.3992
79 1 4 6.3338 29.7977 13.1512
80 1 4 6.4527 29.9258 13.2648
81 1 1 18.8022 8.3009 3.2561
82 1 2 19.0055 8.6645 3.5117
83 1 3 19.0512 8.8478 3.6555
84 1 4 18.9015 8.4641 3.4569
85 1 4 18.7210 8.4917 3.3565
86 1 1 8.3171 8.9652 9.1543
87 1 2 7.8364 8.9878 9.2395
88 1 3 7.6194 8.9979 9.3354
89 1 4 8.0618 9.0431 9.2289
90 1 4 8.1828 8.9090 9.3328
91 1 1 17.2811 4.8330 0.0022
92 1 2 17.6283 5.0349 0.2807
93 1 3 17.7563 5.1714 0.4268
94 1 4 17.4331 4.9283 0.2134
95 1 4 17.3177 5.0448 0.0850
96 1 1 3.0775 8.7094 25.3001
97 1 2 2.7025 8.8705 25.0311
98 1 3 2.5388 8.9998 24.9178
99 1 4 2.9180 8.8280 25.1069
100 1 4 2.9525 8.9029 25.2982
101 1 1 7.1700 28.1051 17.1303
102 1 2 7.1844 27.6168 17.1139
103 1 3 7.2459 27.3876 17.1205
104 1 4 7.1887 27.8356 17.1921
105 1 4 7.3383 27.9501 17.1030
106 1 1 29.6316 21.3755 20.0546
107 1 2 29.6656 21.7710 19.7694
108 1 3 29.7379 21.9522 19.6341
109 1 4 29.6740 21.5513 19.8445
110 1 4 29.7991 21.5271 20.0094
111 1 1 15.1848 2.2784 26.5061
112 1 2 15.2651 2.7599 26.4814
113 1 3 15.2597 2.9924 26.4338
114 1 4 15.1662 2.5543 26.5254
115 1 4 15.1329 2.4423 26.3528
116 1 1 24.3208 13.6100 4.8363
117 1 2 24.6822 13.4188 4.5685
118 1 3 24.8474 13.2797 4.4698
119 1 4 24.4722 13.4603 4.6588
120 1 4 24.4667 13.4340 4.8654
121 1 1 3.0530 0.8737 9.4126
122 1 2 3.3942 0.5323 9.4896
123 1 3 3.5335 0.3611 9.5771
124 1 4 3.1893 0.6360 9.4545
125 1 4 3.1442 0.7773 9.6009
126 1 1 9.4623 6.3915 29.5265
127 1 2 9.3388 5.9189 29.5087
128 1 3 9.2305 5.7082 29.5234
129 1 4 9.3441 6.1477 29.4683
130 1 4 9.3105 6.2607 29.6401
131 1 1 7.9129 11.7080 5.9888
132 1 2 7.4683 11.9110 5.9774
133 1 3 7.2352 11.9555 5.9766
134 1 4 7.6585 11.7992 6.0505
135 1 4 7.7024 11.6310 5.9355
136 1 1 16.4229 8.5332 15.8957
137 1 2 16.8720 8.6520 16.0475
138 1 3 17.0966 8.7266 16.0672
139 1 4 16.6538 8.6677 15.9692
140 1 4 16.6250 8.5655 15.7899
141 1 1 25.9195 5.7033 0.3903
142 1 2 26.3660 5.7268 0.1929
143 1 3 26.5984 5.7505 0.1503
144 1 4 26.1837 5.6584 0.3197
145 1 4 26.1167 5.8060 0.4507
146 1 1 25.3024 17.5930 17.0319
147 1 2 25.5412 18.0138 16.9624
148 1 3 25.6763 18.2081 16.9812
149 1 4 25.4956 17.7883 16.9946
150 1 4 25.3934 17.7513 17.1724
151 1 1 9.5274 29.8315 18.1779
152 1 2 9.9594 29.6427 18.3068
153 1 3 10.1799 29.5550 18.3136
154 1 4 9.7963 29.7895 18.2304
155 1 4 9.6921 29.7157 18.0658
156 1 1 15.2732 18.3918 1.7327
157 1 2 15.0976 18.8469 1.7010
158 1 3 14.9707 19.0425 1.6564
159 1 4 15.1213 18.6224 1.7564
160 1 4 15.1280 18.4984 1.5891
161 1 1 5.0815 6.7794 15.4955
162 1 2 5.3810 6.7515 15.8808
163 1 3 5.5654 6.7264 16.0282
164 1 4 5.2804 6.8224 15.6837
165 1 4 5.2843 6.6771 15.5344
166 1 1 4.0766 16.9815 3.9518
167 1 2 3.7797 17.3686 3.9816
168 1 3 3.5952 17.5168 4.0005
169 1 4 3.8986 17.1766 4.0361
170 1 4 3.8521 17.0152 3.9127
171 1 1 6.6379 11.0645 11.6639
172 1 2 6.5630 10.9225 11.2022
173 1 3 6.5527 10.8061 10.9956
174 1 4 6.5512 10.9365 11.4339
175 1 4 6.7359 10.9082 11.5260
176 1 1 15.9029 10.5865 8.3874
177 1 2 15.6180 10.9539 8.5383
178 1 3 15.4380 11.0945 8.6030
179 1 4 15.7301 10.7506 8.5290
180 1 4 15.6800 10.6384 8.3608
181 1 1 14.3945 13.2161 28.4177
182 1 2 14.2582 13.4046 28.8476
183 1 3 14.1679 13.4450 29.0634
184 1 4 14.3624 13.2727 28.6871
185 1 4 14.2269 13.1681 28.5683
186 1 1 2.6901 13.6840 3.5512
187 1 2 3.1345 13.8332 3.6897
188 1 3 3.3219 13.9516 3.7748
189 1 4 2.9136 13.7615 3.6958
190 1 4 2.7843 13.8898 3.5945
191 1 1 22.4309 24.6409 7.6428
192 1 2 22.0211 24.9072 7.6347
193 1 3 21.7974 24.9858 7.6231
194 1 4 22.1854 24.7563 7.6997
195 1 4 22.2195 24.6078 7.5575
196 1 1 3.5261 17.1077 14.4287
197 1 2 3.9283 16.8308 14.4060
198 1 3 4.1495 16.7448 14.4099
199 1 4 3.7549 16.9626 14.4871
200 1 4 3.7504 17.1521 14.4007
201 1 1 5.2713 8.2493 0.4446
202 1 2 5.3062 8.6081 0.7747
203 1 3 5.2922 8.8112 0.8969
204 1 4 5.2199 8.4416 0.6375
205 1 4 5.2527 8.4788 0.4351
206 1 1 18.6160 17.4156 16.9706
207 1 2 18.6352 17.0906 16.6061
208 1 3 18.5888 16.9434 16.4257
209 1 4 18.6106 17.2893 16.7239
210 1 4 18.4608 17.2793 16.8684
211 1 1 7.4509 6.3597 23.2656
212 1 2 7.6585 6.7438 23.4854
213 1 3 7.7953 6.8908 23.6120
214 1 4 7.6229 6.5620 23.3451
215 1 4 7.5873 6.3852 23.4495
216 1 1 6.8522 15.1500 3.6734
217 1 2 6.8996 15.4416 4.0628
218 1 3 6.9293 15.5339 4.2795
219 1 4 6.9468 15.2901 3.8930
220 1 4 6.8261 15.1204 3.9004
221 1 1 11.9780 10.0163 25.3977
222 1 2 11.7761 10.3087 25.0621
223 1 3 11.7291 10.4758 24.9002
224 1 4 11.9124 10.1507 25.1644
225 1 4 12.0224 10.2296 25.3229
226 1 1 19.8816 12.7479 14.6654
227 1 2 19.7645 13.2195 14.7185
228 1 3 19.6599 13.4326 14.7176
229 1 4 19.7648 12.9881 14.7396
230 1 4 19.7361 12.8904 14.5578
231 1 1 14.6126 20.8310 23.9628
232 1 2 14.5749 21.0663 24.3896
233 1 3 14.5145 21.2080 24.5702
234 1 4 14.5278 20.9299 24.2074
235 1 4 14.5253 21.0343 24.0271
236 1 1 5.1524 23.5244 27.4082
237 1 2 5.0508 23.8322 27.7740
238 1 3 5.0576 23.9905 27.9508
239 1 4 5.1158 23.7484 27.5673
240 1 4 5.2752 23.6149 27.5809
241 1 1 8.5081 1.5721 16.6988
242 1 2 8.2591 1.5788 16.2783
243 1 3 8.1623 1.5310 16.0668
244 1 4 8.3308 1.5218 16.4919
245 1 4 8.5307 1.4634 16.4970
246 1 1 18.8035 4.6121 22.9209
247 1 2 19.2860 4.6133 22.8429
248 1 3 19.5198 4.6543 22.8451
249 1 4 19.0785 4.5869 22.9442
250 1 4 18.9717 4.7654 22.9568
251 1 1 15.0503 9.8029 23.1642
252 1 2 15.1782 10.2164 22.9371
253 1 3 15.2900 10.4082 22.8530
254 1 4 15.1671 9.9929 22.9996
255 1 4 15.2117 9.9632 23.2010
256 1 1 4.0473 26.5557 9.8549
257 1 2 3.7193 26.8690 9.6726
258 1 3 3.5251 26.9953 9.6208
259 1 4 3.8640 26.7604 9.8185
260 1 4 3.8172 26.5589 9.8433
261 1 1 8.3288 8.5980 25.6096
262 1 2 8.7529 8.7189 25.8203
263 1 3 8.9353 8.7534 25.9684
264 1 4 8.5776 8.5948 25.7317
265 1 4 8.3962 8.6318 25.8273
266 1 1 7.9300 15.0555 10.4388
267 1 2 7.9478 15.5431 10.4100
268 1 3 8.0124 15.7708 10.3907
269 1 4 7.9610 15.3178 10.3547
270 1 4 8.0943 15.2128 10.4757
271 1 1 1.1194 18.6551 24.0960
272 1 2 0.9003 18.3482 23.7852
273 1 3 0.7549 18.2405 23.6314
274 1 4 1.0111 18.5330 23.8721
275 1 4 0.9028 18.6288 24.0221
276 1 1 8.1468 18.2833 25.9447
277 1 2 8.1510 18.7525 25.8080
278 1 3 8.1723 18.9886 25.7945
279 1 4 8.2206 18.5408 25.8738
280 1 4 8.1420 18.4837 26.0581
281 1 1 6.0471 10.9649 7.0422
282 1 2 5.8230 11.3897 7.1331
283 1 3 5.7672 11.6164 7.1759
284 1 4 5.9435 11.2216 7.0272
285 1 4 6.1141 11.1657 7.1331
286 1 1 6.4836 11.2782 21.7407
287 1 2 6.2548 11.0125 21.4001
288 1 3 6.1963 10.8777 21.2137
289 1 4 6.3916 11.0738 21.5777
290 1 4 6.5339 11.2164 21.5245
291 1 1 20.6258 28.9541 9.2428
292 1 2 21.1119 29.0007 9.2206
293 1 3 21.3463 28.9667 9.2046
294 1 4 20.8910 28.9577 9.1624
295 1 4 20.8029 28.8122 9.2827
296 1 1 14.3207 23.3071 16.7463
297 1 2 14.1777 23.2147 16.2881
298 1 3 14.1372 23.2176 16.0542
299 1 4 14.3104 23.2443 16.4765
300 1 4 14.2948 23.4358 16.5570
301 1 1 14.1165 1.4073 29.0108
302 1 2 14.5656 1.2355 28.9229
303 1 3 14.7567 1.1021 28.8777
304 1 4 14.3427 1.2953 28.8962
305 1 4 14.2170 1.2012 29.0331
306 1 1 26.6965 25.2112 1.5255
307 1 2 26.2534 25.0083 1.4874
308 1 3 26.0213 24.9640 1.4645
309 1 4 26.4493 25.1226 1.4368
310 1 4 26.4817 25.2864 1.5615
311 1 1 27.8327 26.1592 10.1499
312 1 2 27.5618 25.7804 10.0013
313 1 3 27.3874 25.6277 9.9502
314 1 4 27.6531 25.9934 10.0192
315 1 4 27.6252 26.0775 10.2078
316 1 1 14.1125 2.4027 29.2156
317 1 2 14.1270 1.9146 29.1945
318 1 3 14.1897 1.6856 29.1929
319 1 4 14.1388 2.1329 29.2733
320 1 4 14.2776 2.2487 29.1696
321 1 1 8.6501 17.2689 17.6082
322 1 2 8.4899 17.7014 17.7702
323 1 3 8.4431 17.8980 17.8948
324 1 4 8.6292 17.5316 17.6942
325 1 4 8.6255 17.3632 17.8170
326 1 1 9.7312 21.1805 12.6021
327 1 2 9.4880 20.8008 12.7907
328 1 3 9.3568 20.6064 12.8277
329 1 4 9.6436 20.9274 12.6735
330 1 4 9.5560 21.0498 12.5294
331 1 1 20.5172 23.4184 12.9665
332 1 2 20.0854 23.5709 12.7956
333 1 3 19.9074 23.6856 12.6883
334 1 4 20.3012 23.4854 12.8062
335 1 4 20.4374 23.6200 12.8885
336 1 1 1.0189 1.6904 29.3286
337 1 2 1.2648 1.6281 29.7464
338 1 3 1.3657 1.5443 29.9443
339 1 4 1.2001 1.6135 29.5237
340 1 4 1.0075 1.5374 29.5005
341 1 1 17.9664 24.6647 6.9932
342 1 2 18.4374 24.7942 7.0097
343 1 3 18.6454 24.9038 7.0426
344 1 4 18.2232 24.7310 7.0737
345 1 4 18.0772 24.8659 7.0111
346 1 1 19.0132 24.7756 12.2374
347 1 2 18.5489 24.8334 12.0961
348 1 3 18.3123 24.8345 12.0763
349 1 4 18.7477 24.8520 12.2149
350 1 4 18.8154 24.6689 12.2880
351 1 1 5.8371 20.5098 27.4220
352 1 2 5.3584 20.5292 27.3253
353 1 3 5.1336 20.4842 27.2635
354 1 4 5.5622 20.4746 27.4227
355 1 4 5.6951 20.3875 27.2880
356 1 1 25.6445 5.3382 5.7935
357 1 2 26.1284 5.4068 5.7890
358 1 3 26.3492 5.4929 5.8029
359 1 4 25.9090 5.3843 5.8622
360 1 4 25.7804 5.5234 5.7755
361 1 1 27.1438 12.0897 0.6942
362 1 2 27.1239 12.5767 0.7312
363 1 3 27.0602 12.8030 0.7639
364 1 4 27.1238 12.3507 0.7854
365 1 4 26.9733 12.2445 0.6879
366 1 1 21.4351 13.2615 2.4415
367 1 2 21.8457 12.9991 2.4037
368 1 3 22.0208 12.8532 2.3373
369 1 4 21.6791 13.1559 2.3632
370 1 4 21.4929 13.0688 2.3293
371 1 1 28.6996 14.3585 14.7661
372 1 2 28.8926 14.8030 14.7021
373 1 3 29.0140 15.0063 14.7191
374 1 4 28.8696 14.5724 14.7196
375 1 4 28.7987 14.5124 14.9061
376 1 1 6.5772 26.4303 13.3279
377 1 2 6.2975 26.8299 13.2966
378 1 3 6.2118 27.0504 13.2766
379 1 4 6.4445 26.6582 13.2427
380 1 4 6.6129 26.6548 13.3654
381 1 1 2.2383 6.7001 16.0926
382 1 2 2.1598 7.1478 15.9128
383 1 3 2.0831 7.3382 15.7935
384 1 4 2.1297 6.9455 16.0231
385 1 4 2.1487 6.7810 15.8964
386 1 1 23.0359 11.5892 0.7393
387 1 2 23.0037 11.4126 0.2846
388 1 3 23.0401 11.3493 0.0587
389 1 4 23.0706 11.4457 0.5047
390 1 4 23.1397 11.6391 0.5398
391 1 1 3.4107 20.9974 5.5988
392 1 2 3.0229 21.2947 5.5872
393 1 3 2.8464 21.4455 5.6368
394 1 4 3.2409 21.2164 5.6058
395 1 4 3.2632 21.0755 5.7577
396 1 1 2.9244 2.2031 20.1792
397 1 2 3.3388 1.9758 20.3040
398 1 3 3.5052 1.8212 20.3731
399 1 4 3.1454 2.0361 20.1901
400 1 4 2.9739 2.0179 20.3070
401 1 1 12.6181 20.3159 22.3097
402 1 2 12.2558 19.9887 22.3321
403 1 3 12.1228 19.7924 22.3437
404 1 4 12.4401 20.1186 22.3883
405 1 4 12.6002 20.0922 22.2576
406 1 1 1.1813 17.1198 29.7116
407 1 2 1.6351 17.2984 29.7444
408 1 3 1.8702 17.3309 29.7510
409 1 4 1.4407 17.2029 29.6603
410 1 4 1.3870 17.0280 29.7599
411 1 1 13.9494 23.9381 21.5466
412 1 2 13.4928 23.9508 21.3724
413 1 3 13.2710 24.0089 21.3111
414 1 4 13.7183 23.9965 21.4051
415 1 4 13.7606 24.0592 21.5992
416 1 1 15.0958 15.1912 24.0603
417 1 2 15.3169 14.7553 24.0607
418 1 3 15.4682 14.5736 24.0811
419 1 4 15.2193 14.9537 24.1321
420 1 4 15.3157 15.1226 24.0572
421 1 1 8.9511 13.3441 0.8055
422 1 2 9.0409 12.8639 0.8234
423 1 3 9.0295 12.6269 0.8180
424 1 4 8.9896 13.0764 0.7446
425 1 4 8.8198 13.1570 0.8346
426 1 1 12.6891 13.7652 25.8960
427 1 2 13.0397 14.1054 25.8820
428 1 3 13.2443 14.2254 25.8714
429 1 4 12.8961 13.9333 25.8206
430 1 4 12.9147 13.7654 25.9427
431 1 1 24.4255 7.6363 27.8505
432 1 2 23.9569 7.7672 27.8039
433 1 3 23.7519 7.8790 27.7613
434 1 4 24.1760 7.7083 27.7537
435 1 4 24.3156 7.8384 27.8373
436 1 1 28.8026 17.8972 10.8303
437 1 2 29.1778 17.6031 10.9379
438 1 3 29.3465 17.4740 11.0438
439 1 4 28.9629 17.6895 10.9196
440 1 4 28.9424 17.8752 11.0120
441 1 1 2.1975 22.9520 19.3240
442 1 2 1.8650 23.3031 19.2523
443 1 3 1.7492 23.5046 19.2040
444 1 4 2.0299 23.1438 19.2145
445 1 4 2.2050 23.1823 19.3207
446 1 1 29.5699 6.4219 16.7725
447 1 2 29.7333 6.8107 16.5255
448 1 3 29.7675 7.0250 16.4291
449 1 4 29.6747 6.6677 16.6991
450 1 4 29.4728 6.6165 16.6966
451 1 1 6.1234 19.6423 1.3743
452 1 2 6.0188 19.9721 1.0290
453 1 3 5.9589 20.1661 0.9061
454 1 4 6.1240 19.8609 1.2039
455 1 4 6.0007 19.8373 1.3702
456 1 1 16.2818 24.7262 21.2490
457 1 2 16.4391 24.2682 21.3158
458 1 3 16.5663 24.0711 21.3520
459 1 4 16.3864 24.4915 21.3529
460 1 4 16.4847 24.6204 21.2221
461 1 1 25.7271 2.4884 3.5655
462 1 2 25.4571 2.5973 3.9581
463 1 3 25.3087 2.5962 4.1434
464 1 4 25.6178 2.5022 3.8199
465 1 4 25.5350 2.4009 3.6577
466 1 1 22.6230 3.9383 25.6976
467 1 2 22.6852 4.0146 26.1763
468 1 3 22.6626 4.0725 26.4054
469 1 4 22.6066 3.9313 25.9742
470 1 4 22.5260 4.0794 25.8518
471 1 1 5.7975 22.1037 11.1393
472 1 2 5.7334 21.6214 11.1861
473 1 3 5.6490 21.3997 11.1935
474 1 4 5.7515 21.8341 11.0943
475 1 4 5.6143 21.9687 11.1748
476 1 1 12.8871 0.2341 3.1568
477 1 2 12.4820 0.4775 3.0320
478 1 3 12.3015 0.5819 2.9185
479 1 4 12.6358 0.3064 3.0650
480 1 4 12.8154 0.3389 2.9646
481 1 1 23.8572 5.0875 10.9060
482 1 2 23.4549 4.9269 11.1323
483 1 3 23.2341 4.8888 11.2107
484 1 4 23.6119 4.9743 10.9677
485 1 4 23.6498 5.1783 10.9488
486 1 1 3.1546 8.7456 4.1523
487 1 2 3.4972 8.9100 4.4597
488 1 3 3.6401 8.9521 4.6445
489 1 4 3.3745 8.7717 4.3189
490 1 4 3.1772 8.7475 4.3815
491 1 1 29.2444 27.4954 4.0378
492 1 2 29.5355 27.1922 4.2873
493 1 3 29.6808 27.0891 4.4443
494 1 4 29.3557 27.3268 4.2275
495 1 4 29.4109 27.5250 4.1943
496 1 1 21.4639 27.6114 13.2339
497 1 2 21.8008 27.7411 13.5634
498 1 3 21.9486 27.8568 13.7089
499 1 4 21.5970 27.7089 13.4567
500 1 4 21.5878 27.8022 13.2705
501 1 1 15.1905 18.2574 18.5202
502 1 2 15.0800 18.4290 18.9644
503 1 3 15.0357 18.4585 19.1957
504 1 4 15.1974 18.3396 18.7849
505 1 4 15.1150 18.1612 18.7155
506 1 1 28.1483 1.9100 21.6166
507 1 2 28.0389 2.3840 21.5691
508 1 3 27.9325 2.5956 21.5538
509 1 4 28.0676 2.1717 21.6591
510 1 4 27.9578 2.0259 21.5587
511 1 1 16.6421 4.5127 6.5153
512 1 2 16.5327 4.6173 6.0505
513 1 3 16.4263 4.6575 5.8421
514 1 4 16.5475 4.6289 6.2821
515 1 4 16.4651 4.4625 6.3767
516 1 1 26.4881 5.5212 28.4590
517 1 2 26.4714 5.0485 28.5822
518 1 3 26.4772 4.8388 28.6935
519 1 4 26.4220 5.2751 28.5680
520 1 4 26.5802 5.3961 28.6291
521 1 1 29.4315 19.2875 1.4643
522 1 2 29.0473 19.1385 1.2014
523 1 3 28.8894 19.0902 1.0309
524 1 4 29.2630 19.1595 1.2853
525 1 4 29.3398 19.3519 1.2630
526 1 1 15.0125 18.0941 16.6485
527 1 2 15.3412 18.0690 16.2876
528 1 3 15.5361 18.0428 16.1547
529 1 4 15.1979 18.0096 16.4606
530 1 4 15.2423 18.1073 16.6392
531 1 1 18.7064 27.8606 24.6832
532 1 2 19.1244 27.6390 24.8061
533 1 3 19.3508 27.5763 24.8399
534 1 4 18.9504 27.7927 24.7957
535 1 4 18.9226 27.8703 24.6043
536 1 1 1.5846 23.4473 2.8833
537 1 2 2.0614 23.3424 2.9079
538 1 3 2.2932 23.3121 2.8668
539 1 4 1.8613 23.4597 2.8941
540 1 4 1.7488 23.4079 2.7265
541 1 1 5.3426 1.8833 7.2996
542 1 2 5.0985 2.0050 6.8940
543 1 3 4.9751 2.1144 6.7232
544 1 4 5.2610 1.9960 7.0599
545 1 4 5.1866 2.0449 7.2483
546 1 1 25.8675 25.5343 23.6613
547 1 2 25.8964 25.8820 23.3189
548 1 3 25.8547 26.0409 23.1476
549 1 4 25.8434 25.7682 23.5144
550 1 4 25.7387 25.5915 23.4790
551 1 1 14.7189 7.2926 5.8197
552 1 2 14.4178 6.9492 5.9937
553 1 3 14.2320 6.8224 6.0696
554 1 4 14.5225 7.0996 5.8508
555 1 4 14.5107 7.2964 5.9183
556 1 1 5.2183 14.4195 12.0824
557 1 2 5.4333 14.8386 12.2130
558 1 3 5.4863 15.0640 12.2653
559 1 4 5.2940 14.6526 12.2119
560 1 4 5.1749 14.6420 12.0412
561 1 1 7.7031 11.9506 24.0359
562 1 2 7.9917 12.3436 24.0016
563 1 3 8.1639 12.5057 24.0220
564 1 4 7.9116 12.1261 23.9854
565 1 4 7.8652 12.0432 24.1709
566 1 1 26.0904 24.5053 15.9810
567 1 2 25.9728 24.9334 16.1855
568 1 3 25.9132 25.1587 16.2307
569 1 4 25.9602 24.7351 16.0651
570 1 4 26.1008 24.7247 15.9117
571 1 1 1.7774 25.1290 26.4299
572 1 2 2.1498 25.4434 26.4669
573 1 3 2.2889 25.6346 26.4886
574 1 4 1.9626 25.3156 26.5178
575 1 4 1.8014 25.3549 26.3917
576 1 1 8.7345 14.9147 29.2686
577 1 2 8.6683 15.2762 28.9464
578 1 3 8.6253 15.4823 28.8367
579 1 4 8.7561 15.1462 29.1178
580 1 4 8.6204 15.1148 29.2728
581 1 1 4.1140 25.5172 11.4784
582 1 2 4.2253 25.1425 11.1849
583 1 3 4.3226 24.9538 11.0786
584 1 4 4.1602 25.2661 11.3706
585 1 4 4.3071 25.3996 11.4341
586 1 1 0.8728 28.7717 10.0057
587 1 2 1.3517 28.7773 10.1036
588 1 3 1.5792 28.8353 10.1388
589 1 4 1.1228 28.8154 10.1170
590 1 4 1.0470 28.9110 9.9481
591 1 1 2.2340 27.2903 8.6897
592 1 2 2.6531 27.0754 8.8203
593 1 3 2.8233 26.9444 8.9214
594 1 4 2.4388 27.1097 8.7373
595 1 4 2.3078 27.1850 8.8808
596 1 1 3.8655 22.8118 27.7010
597 1 2 3.6316 23.0853 27.3703
598 1 3 3.5152 23.2555 27.2526
599 1 4 3.7918 23.0083 27.5199
600 1 4 3.7180 22.9883 27.7138
601 1 1 3.0464 17.8417 1.6796
602 1 2 3.5076 17.8726 1.5207
603 1 3 3.7204 17.9433 1.4427
604 1 4 3.3177 17.8918 1.6533
605 1 4 3.1651 17.9991 1.5604
606 1 1 5.5062 18.2636 3.0977
607 1 2 5.1183 17.9662 3.0925
608 1 3 4.9024 17.8685 3.1074
609 1 4 5.2655 18.1385 3.0409
610 1 4 5.3009 18.2654 3.2023
611 1 1 20.3089 17.1396 4.5356
612 1 2 19.8887 17.3781 4.6093
613 1 3 19.6669 17.4431 4.6636
614 1 4 20.0865 17.2620 4.6467
615 1 4 20.0887 17.0748 4.5552
616 1 1 16.0123 20.8744 16.6694
617 1 2 16.3386 20.5935 16.9007
618 1 3 16.5260 20.5060 17.0172
619 1 4 16.1780 20.7557 16.8571
620 1 4 16.2382 20.8916 16.7111
621 1 1 3.8201 10.9977 18.9269
622 1 2 3.9028 11.4788 18.9015
623 1 3 3.9387 11.7092 18.9458
624 1 4 3.9287 11.2521 18.9454
625 1 4 3.7776 11.1757 19.0668
626 1 1 14.8766 5.5687 7.0116
627 1 2 15.2968 5.8183 7.0020
628 1 3 15.5110 5.9110 7.0456
629 1 4 15.1428 5.6444 6.9958
630 1 4 15.0314 5.6290 7.1712
631 1 1 24.5389 25.4602 27.2327
632 1 2 24.8835 25.3595 27.5644
633 1 3 25.0846 25.3382 27.6888
634 1 4 24.7338 25.4749 27.4292
635 1 4 24.7686 25.4444 27.2260
636 1 1 11.7945 21.1630 3.2992
637 1 2 12.2589 21.0144 3.3335
638 1 3 12.4949 20.9981 3.3535
639 1 4 12.0516 21.1057 3.3854
640 1 4 11.9984 21.2623 3.2587
641 1 1 15.0236 4.9127 28.0499
642 1 2 15.0874 4.7540 28.5078
643 1 3 15.0618 4.6822 28.7326
644 1 4 15.0239 4.7651 28.2845
645 1 4 14.9002 4.9278 28.2439
646 1 1 26.0792 25.1474 9.6490
647 1 2 25.8781 25.5782 9.5354
648 1 3 25.8342 25.8016 9.4681
649 1 4 25.9858 25.3731 9.5179
650 1 4 26.1591 25.3629 9.6331
651 1 1 13.1026 3.2655 3.3858
652 1 2 13.5772 3.3826 3.3865
653 1 3 13.8105 3.3998 3.3461
654 1 4 13.3560 3.3566 3.3201
655 1 4 13.2949 3.1574 3.3193
656 1 1 6.6786 14.6077 28.6753
657 1 2 6.5956 14.1264 28.6945
658 1 3 6.6118 13.8896 28.6985
659 1 4 6.6671 14.3407 28.7488
660 1 4 6.7953 14.4216 28.6058
661 1 1 26.2835 25.7630 29.5394
662 1 2 26.7295 25.9289 29.6508
663 1 3 26.9483 26.0211 29.6492
664 1 4 26.5069 25.9206 29.5848
665 1 4 26.4765 25.7984 29.4187
666 1 1 7.8348 11.6819 28.8827
667 1 2 7.6202 11.5650 29.3060
668 1 3 7.4693 11.5277 29.4854
669 1 4 7.6801 11.5663 29.0815
670 1 4 7.6416 11.7489 28.9887
671 1 1 10.0568 20.9490 20.0602
672 1 2 9.7268 20.9076 19.7020
673 1 3 9.5307 20.8785 19.5714
674 1 4 9.8439 20.9862 19.8867
675 1 4 9.8503 20.8483 20.0428
676 1 1 19.5065 15.3867 7.2517
677 1 2 19.0214 15.3270 7.2455
678 1 3 18.7993 15.2432 7.2497
679 1 4 19.2423 15.3343 7.3172
680 1 4 19.3670 15.2088 7.2072
681 1 1 19.3225 12.2382 21.7393
682 1 2 18.8559 12.1481 21.6248
683 1 3 18.6263 12.0877 21.6236
684 1 4 19.0459 12.2411 21.7209
685 1 4 19.1589 12.1019 21.8272
686 1 1 22.2168 24.1059 25.0555
687 1 2 22.2915 23.6232 25.0726
688 1 3 22.3714 23.4035 25.1144
689 1 4 22.2409 23.8413 25.1346
690 1 4 22.3991 23.9731 25.1024
691 1 1 20.1774 16.7499 3.8481
692 1 2 20.4594 16.3623 3.9440
693 1 3 20.5468 16.1504 4.0057
694 1 4 20.3005 16.5015 3.8472
695 1 4 20.1550 16.5642 3.9826
696 1 1 29.9104 20.0889 26.4390
697 1 2 29.4353 20.1995 26.4706
698 1 3 29.1988 20.1968 26.4905
699 1 4 29.6494 20.1267 26.5242
700 1 4 29.7154 19.9722 26.4009
701 1 1 27.7438 22.5796 5.1510
702 1 2 27.3805 22.9010 5.0905
703 1 3 27.2469 23.0943 5.0567
704 1 4 27.5656 22.7664 5.0501
705 1 4 27.7247 22.8076 5.1782
706 1 1 1.7390 11.2010 0.7033
707 1 2 1.8760 11.6663 0.7640
708 1 3 1.9940 11.8690 0.8006
709 1 4 1.8520 11.4526 0.6759
710 1 4 1.9177 11.3038 0.8061
711 1 1 24.4257 19.1057 2.1511
712 1 2 24.3006 19.5771 2.1184
713 1 3 24.1871 19.7848 2.1010
714 1 4 24.3265 19.3603 2.1979
715 1 4 24.2402 19.2177 2.0729
716 1 1 29.0039 18.5582 24.4875
717 1 2 29.4621 18.7250 24.5216
718 1 3 29.6871 18.7703 24.5824
719 1 4 29.2798 18.5848 24.4886
720 1 4 29.1590 18.5683 24.6576
721 1 1 24.1519 20.5127 7.5581
722 1 2 23.9899 20.4048 7.1098
723 1 3 23.9514 20.3894 6.8760
724 1 4 24.1258 20.4222 7.2975
725 1 4 24.1598 20.6198 7.3543
726 1 1 2.4052 5.6454 0.7035
727 1 2 2.7863 5.7456 0.4143
728 1 3 2.9559 5.7459 0.2482
729 1 4 2.5694 5.7109 0.4900
730 1 4 2.5402 5.5191 0.5660
731 1 1 25.7235 14.5184 26.3113
732 1 2 25.5986 14.9851 26.3857
733 1 3 25.5267 15.2105 26.3661
734 1 4 25.5867 14.7581 26.3375
735 1 4 25.7059 14.7037 26.1755
736 1 1 4.6063 26.3150 17.2364
737 1 2 4.1575 26.1871 17.3817
738 1 3 3.9641 26.1228 17.5035
739 1 4 4.3548 26.3063 17.3524
740 1 4 4.5226 26.2022 17.4190
741 1 1 28.5148 4.7543 20.5277
742 1 2 28.0756 4.6890 20.7320
743 1 3 27.8832 4.6921 20.8711
744 1 4 28.2584 4.7874 20.6276
745 1 4 28.4324 4.7757 20.7417
746 1 1 1.8095 10.4806 12.3777
747 1 2 1.7352 10.0077 12.2792
748 1 3 1.6800 9.7769 12.2850
749 1 4 1.6980 10.2317 12.3287
750 1 4 1.7882 10.2910 12.5069
751 1 1 16.7119 0.2234 3.2162
752 1 2 17.1551 0.4197 3.2793
753 1 3 17.3414 0.5640 3.3080
754 1 4 16.9351 0.3544 3.3155
755 1 4 16.8039 0.4300 3.1724
756 1 1 3.4669 16.7264 26.6535
757 1 2 3.7915 16.5484 26.9727
758 1 3 3.9789 16.5082 27.1128
759 1 4 3.6329 16.6848 26.8716
760 1 4 3.6935 16.7540 26.6846
761 1 1 10.5382 11.7017 26.5990
762 1 2 10.8676 11.3420 26.6308
763 1 3 11.0648 11.2103 26.6427
764 1 4 10.7393 11.5293 26.6805
765 1 4 10.7597 11.6809 26.5390
766 1 1 25.6010 8.0218 14.2480
767 1 2 25.1739 7.8876 14.0518
768 1 3 24.9909 7.7710 13.9555
769 1 4 25.3525 7.9093 14.1989
770 1 4 25.5330 7.8452 14.1167
771 1 1 18.4458 29.5480 10.7154
772 1 2 18.2580 29.1018 10.7829
773 1 3 18.1186 28.9102 10.7984
774 1 4 18.3319 29.2975 10.6818
775 1 4 18.2333 29.4670 10.7523
776 1 1 11.6255 23.0695 20.8708
777 1 2 11.4520 22.6200 20.7888
778 1 3 11.4121 22.3861 20.7810
779 1 4 11.5141 22.8169 20.8954
780 1 4 11.7174 22.8583 20.8762
781 1 1 9.0718 14.8944 5.0038
782 1 2 9.5351 14.9762 5.1366
783 1 3 9.7523 14.9687 5.2319
784 1 4 9.3459 14.8797 5.0422
785 1 4 9.2010 14.8311 5.1838
786 1 1 8.9821 20.6916 2.2745
787 1 2 9.2543 21.0642 2.4356
788 1 3 9.3582 21.2359 2.5624
789 1 4 9.1656 20.8513 2.4072
790 1 4 8.9612 20.8431 2.4467
791 1 1 23.8756 10.9551 18.7112
792 1 2 23.5508 11.0461 19.0649
793 1 3 23.4085 11.1443 19.2276
794 1 4 23.6557 11.0386 18.8577
795 1 4 23.8435 11.1288 18.8591
796 1 1 28.5993 25.9440 23.5685
797 1 2 29.0044 26.1536 23.3929
798 1 3 29.2118 26.2029 23.2885
799 1 4 28.7977 26.0481 23.4054
800 1 4 28.8064 25.8654 23.5052
801 1 1 7.7700 15.3971 29.4977
802 1 2 7.9151 15.8082 29.2767
803 1 3 7.9296 16.0177 29.1661
804 1 4 7.8246 15.6607 29.4318
805 1 4 7.6699 15.5455 29.3528
806 1 1 24.2225 23.2451 14.9059
807 1 2 24.6771 23.3621 14.7695
808 1 3 24.9029 23.3626 14.6964
809 1 4 24.4570 23.2877 14.7644
810 1 4 24.4220 23.1302 14.8963
811 1 1 5.5496 13.2014 24.9765
812 1 2 5.6537 13.2993 24.5091
813 1 3 5.6892 13.3997 24.2969
814 1 4 5.6622 13.2952 24.7412
815 1 4 5.4880 13.3679 24.8296
816 1 1 9.8481 9.9440 9.6936
817 1 2 9.4357 9.6835 9.7244
818 1 3 9.2170 9.5942 9.7003
819 1 4 9.6317 9.7783 9.6433
820 1 4 9.6271 9.9866 9.6446
821 1 1 20.7210 23.2918 4.3727
822 1 2 20.2771 23.4006 4.1994
823 1 3 20.0667 23.4030 4.0896
824 1 4 20.4498 23.2976 4.3159
825 1 4 20.5983 23.2227 4.1903
826 1 1 4.7257 4.4373 25.7314
827 1 2 4.5654 4.8339 25.9678
828 1 3 4.4425 4.9934 26.0936
829 1 4 4.6434 4.6196 25.9232
830 1 4 4.5178 4.5130 25.7956
831 1 1 8.1492 14.3511 28.7162
832 1 2 8.1397 14.7598 28.9840
833 1 3 8.0862 14.9673 29.0862
834 1 4 8.0866 14.5505 28.8982
835 1 4 8.0449 14.5553 28.6941
836 1 1 2.7266 6.9227 14.2736
837 1 2 2.7924 6.4549 14.1481
838 1 3 2.7797 6.2376 14.0534
839 1 4 2.7815 6.6868 14.1388
840 1 4 2.5913 6.7604 14.1818
841 1 1 10.6533 1.9286 4.5303
842 1 2 10.6349 1.6379 4.9228
843 1 3 10.5770 1.5242 5.1230
844 1 4 10.5863 1.7356 4.7177
845 1 4 10.5447 1.9392 4.7332
846 1 1 23.0633 14.8475 3.2714
847 1 2 23.5442 14.9239 3.2287
848 1 3 23.7795 14.9043 3.2041
849 1 4 23.3245 14.8658 3.1804
850 1 4 23.2504 14.7179 3.3072
851 1 1 12.9130 23.6804 22.0701
852 1 2 12.6525 23.8098 22.4630
853 1 3 12.5242 23.8164 22.6626
854 1 4 12.8230 23.7279 22.3279
855 1 4 12.7603 23.5721 22.2045
856 1 1 28.5803 18.7881 26.6296
857 1 2 28.7870 18.7011 27.0639
858 1 3 28.9331 18.6472 27.2431
859 1 4 28.7366 18.7970 26.8584
860 1 4 28.7620 18.6648 26.6993
861 1 1 20.3497 5.4119 9.9827
862 1 2 20.2103 5.3306 9.5213
863 1 3 20.1736 5.3377 9.2869
864 1 4 20.3412 5.3525 9.7121
865 1 4 20.3321 5.5437 9.7946
866 1 1 4.9929 4.0616 3.2417
867 1 2 5.2777 3.9753 2.8540
868 1 3 5.4545 3.9202 2.7055
869 1 4 5.1497 3.9445 3.0455
870 1 4 5.2207 4.0535 3.2083
871 1 1 1.2968 10.5724 16.2500
872 1 2 0.9480 10.2301 16.2400
873 1 3 0.7455 10.1078 16.2202
874 1 4 1.1000 10.3929 16.1735
875 1 4 1.0670 10.5766 16.2662
876 1 1 13.5983 19.5023 6.2386
877 1 2 13.9642 19.5187 6.5622
878 1 3 14.1402 19.4701 6.7140
879 1 4 13.8439 19.4864 6.3660
880 1 4 13.6864 19.3519 6.3892
881 1 1 5.2782 7.2705 7.3769
882 1 2 5.1040 6.9355 7.6872
883 1 3 5.0176 6.8168 7.8738
884 1 4 5.1193 7.1203 7.5473
885 1 4 5.2677 7.2542 7.6065
886 1 1 16.8005 20.8891 21.3237
887 1 2 16.8247 21.3770 21.3406
888 1 3 16.8926 21.6043 21.3489
889 1 4 16.8425 21.1572 21.2673
890 1 4 16.9606 21.0397 21.3925
891 1 1 3.3827 1.7673 3.1829
892 1 2 3.2971 1.5045 3.5860
893 1 3 3.3099 1.3893 3.7932
894 1 4 3.3433 1.6823 3.4438
895 1 4 3.5165 1.6531 3.3317
896 1 1 19.6349 9.7616 8.0740
897 1 2 20.1103 9.7771 8.1863
898 1 3 20.3444 9.7418 8.2035
899 1 4 19.9103 9.7920 8.0690
900 1 4 19.8082 9.6105 8.0602
901 1 1 26.8434 21.0263 14.7859
902 1 2 26.9049 20.5783 14.9713
903 1 3 26.8795 20.3659 15.0743
904 1 4 26.8337 20.7541 14.8371
905 1 4 26.7321 20.9012 14.9441
906 1 1 1.2744 15.6536 25.7164
907 1 2 1.2895 15.2206 25.9427
908 1 3 1.3335 14.9976 26.0111
909 1 4 1.3510 15.4283 25.8586
910 1 4 1.3320 15.4402 25.6514
911 1 1 21.8860 25.0820 12.0857
912 1 2 21.8215 24.6039 12.0071
913 1 3 21.8364 24.3778 11.9363
914 1 4 21.9117 24.8061 12.0776
915 1 4 21.9513 24.9362 11.9197
916 1 1 10.9617 23.1775 23.7004
917 1 2 11.1388 23.4807 24.0404
918 1 3 11.2711 23.6271 24.1724
919 1 4 11.0599 23.3968 23.8386
920 1 4 11.1738 23.2375 23.7675
921 1 1 27.5562 1.1319 16.2939
922 1 2 27.9586 1.3204 16.4975
923 1 3 28.1185 1.4540 16.6112
924 1 4 27.7480 1.2260 16.4705
925 1 4 27.6207 1.3443 16.3555
926 1 1 5.7924 11.4052 13.7273
927 1 2 6.1361 11.6487 13.9753
928 1 3 6.2721 11.8124 14.0806
929 1 4 5.9320 11.5571 13.9124
930 1 4 5.8684 11.6227 13.7252
931 1 1 12.7558 12.7075 12.7097
932 1 2 12.3145 12.5328 12.8265
933 1 3 12.1305 12.4111 12.9141
934 1 4 12.5236 12.6331 12.8414
935 1 4 12.6786 12.5048 12.7873
936 1 1 24.9867 24.2767 5.5054
937 1 2 24.8751 24.7345 5.3755
938 1 3 24.8650 24.9699 5.3461
939 1 4 24.9876 24.5325 5.3986
940 1 4 25.0264 24.4841 5.5976
941 1 1 17.0390 12.2833 24.6681
942 1 2 17.4895 12.3506 24.4909
943 1 3 17.6802 12.4047 24.3603
944 1 4 17.2768 12.3911 24.5751
945 1 4 17.1262 12.3094 24.4564
946 1 1 1.5578 25.4472 21.5355
947 1 2 1.7021 25.4920 22.0003
948 1 3 1.7238 25.5431 22.2311
949 1 4 1.5816 25.4312 21.8112
950 1 4 1.5097 25.5956 21.7051
951 1 1 1.2592 6.0314 4.1459
952 1 2 1.2996 6.3875 3.8135
953 1 3 1.2664 6.5445 3.6385
954 1 4 1.2310 6.2642 3.9981
955 1 4 1.1537 6.0777 3.9464
956 1 1 17.5868 28.2794 17.8482
957 1 2 17.3598 27.9459 18.1242
958 1 3 17.2500 27.7537 18.2101
959 1 4 17.5194 28.0535 17.9940
960 1 4 17.4498 28.0997 17.8031
961 1 1 9.5078 4.4176 18.2970
962 1 2 9.5155 4.8280 18.0316
963 1 3 9.4951 5.0496 17.9492
964 1 4 9.5596 4.6709 18.1971
965 1 4 9.3889 4.6148 18.3026
966 1 1 3.0488 15.4501 1.0505
967 1 2 2.7807 15.4293 0.6423
968 1 3 2.6923 15.3847 0.4265
969 1 4 2.8883 15.3694 0.8394